
Host: n19.gasi-cluster

Timers On : Tue Feb 18 18:38:30 2025
Timers Off: Tue Feb 18 18:38:31 2025

Wall Time:        0.68 seconds

                                                       Time (seconds)
Module                                       User      System        Wall        Calls

--------------------------------------------------------------------------------------

**************************************************************************************

Host: n12.gasi-cluster

Timers On : Thu Feb 20 12:51:54 2025
Timers Off: Thu Feb 20 12:52:36 2025

Wall Time:       42.25 seconds

                                                       Time (seconds)
Module                                       User      System        Wall        Calls

--------------------------------------------------------------------------------------

**************************************************************************************

Host: n24.gasi-cluster

Timers On : Thu Feb 20 12:51:53 2025
Timers Off: Thu Feb 20 12:52:43 2025

Wall Time:       49.47 seconds

                                                       Time (seconds)
Module                                       User      System        Wall        Calls

--------------------------------------------------------------------------------------

**************************************************************************************

Host: n31.gasi-cluster.cluster

Timers On : Thu Feb 20 14:26:38 2025
Timers Off: Thu Feb 20 14:26:40 2025

Wall Time:        2.39 seconds

                                                       Time (seconds)
Module                                       User      System        Wall        Calls

--------------------------------------------------------------------------------------

**************************************************************************************

Host: n31.gasi-cluster.cluster

Timers On : Thu Feb 20 14:27:00 2025
Timers Off: Thu Feb 20 14:31:01 2025

Wall Time:      240.95 seconds

                                                       Time (seconds)
Module                                       User      System        Wall        Calls

--------------------------------------------------------------------------------------

**************************************************************************************

Host: n31.gasi-cluster.cluster

Timers On : Thu Feb 20 14:31:12 2025
Timers Off: Thu Feb 20 14:46:45 2025

Wall Time:      932.67 seconds

                                                       Time (seconds)
Module                                       User      System        Wall        Calls

--------------------------------------------------------------------------------------

**************************************************************************************

Host: n31.gasi-cluster.cluster

Timers On : Thu Feb 20 14:46:56 2025
Timers Off: Thu Feb 20 14:47:50 2025

Wall Time:       53.42 seconds

                                                       Time (seconds)
Module                                       User      System        Wall        Calls

--------------------------------------------------------------------------------------

**************************************************************************************

Host: n31.gasi-cluster.cluster

Timers On : Thu Feb 20 14:48:05 2025
Timers Off: Thu Feb 20 14:48:48 2025

Wall Time:       43.64 seconds

                                                       Time (seconds)
Module                                       User      System        Wall        Calls

--------------------------------------------------------------------------------------

**************************************************************************************

Host: n31.gasi-cluster.cluster

Timers On : Thu Feb 20 14:48:53 2025
Timers Off: Thu Feb 20 14:51:45 2025

Wall Time:      171.24 seconds

                                                       Time (seconds)
Module                                       User      System        Wall        Calls

--------------------------------------------------------------------------------------

**************************************************************************************

Host: n31.gasi-cluster.cluster

Timers On : Thu Feb 20 14:52:11 2025
Timers Off: Thu Feb 20 14:56:33 2025

Wall Time:      262.65 seconds

                                                       Time (seconds)
Module                                       User      System        Wall        Calls

--------------------------------------------------------------------------------------

**************************************************************************************

Host: n31.gasi-cluster.cluster

Timers On : Thu Feb 20 14:56:38 2025
Timers Off: Thu Feb 20 14:56:39 2025

Wall Time:        0.92 seconds

                                                       Time (seconds)
Module                                       User      System        Wall        Calls

--------------------------------------------------------------------------------------

**************************************************************************************

Host: n31.gasi-cluster.cluster

Timers On : Thu Feb 20 15:00:22 2025
Timers Off: Thu Feb 20 15:02:12 2025

Wall Time:      110.65 seconds

                                                       Time (seconds)
Module                                       User      System        Wall        Calls

--------------------------------------------------------------------------------------

**************************************************************************************

Host: n31.gasi-cluster.cluster

Timers On : Thu Feb 20 15:02:33 2025
Timers Off: Thu Feb 20 15:03:55 2025

Wall Time:       81.76 seconds

                                                       Time (seconds)
Module                                       User      System        Wall        Calls

--------------------------------------------------------------------------------------

**************************************************************************************

Host: n31.gasi-cluster.cluster

Timers On : Thu Feb 20 15:04:00 2025
Timers Off: Thu Feb 20 15:04:00 2025

Wall Time:        0.85 seconds

                                                       Time (seconds)
Module                                       User      System        Wall        Calls

--------------------------------------------------------------------------------------

**************************************************************************************

Host: n31.gasi-cluster.cluster

Timers On : Thu Feb 20 15:05:48 2025
Timers Off: Thu Feb 20 15:05:49 2025

Wall Time:        0.84 seconds

                                                       Time (seconds)
Module                                       User      System        Wall        Calls

--------------------------------------------------------------------------------------

**************************************************************************************

Host: n31.gasi-cluster.cluster

Timers On : Thu Feb 20 15:06:16 2025
Timers Off: Thu Feb 20 15:06:17 2025

Wall Time:        0.77 seconds

                                                       Time (seconds)
Module                                       User      System        Wall        Calls

--------------------------------------------------------------------------------------

**************************************************************************************

Host: n31.gasi-cluster.cluster

Timers On : Thu Feb 20 15:06:43 2025
Timers Off: Thu Feb 20 15:06:44 2025

Wall Time:        0.76 seconds

                                                       Time (seconds)
Module                                       User      System        Wall        Calls

--------------------------------------------------------------------------------------

**************************************************************************************

Host: n31.gasi-cluster.cluster

Timers On : Thu Feb 20 15:09:10 2025
Timers Off: Thu Feb 20 15:10:35 2025

Wall Time:       85.30 seconds

                                                       Time (seconds)
Module                                       User      System        Wall        Calls

--------------------------------------------------------------------------------------

**************************************************************************************

Host: n31.gasi-cluster.cluster

Timers On : Thu Feb 20 15:10:40 2025
Timers Off: Thu Feb 20 15:12:10 2025

Wall Time:       89.54 seconds

                                                       Time (seconds)
Module                                       User      System        Wall        Calls

--------------------------------------------------------------------------------------

**************************************************************************************

Host: n31.gasi-cluster.cluster

Timers On : Thu Feb 20 15:51:44 2025
Timers Off: Thu Feb 20 15:51:46 2025

Wall Time:        2.27 seconds

                                                       Time (seconds)
Module                                       User      System        Wall        Calls

--------------------------------------------------------------------------------------

**************************************************************************************

Host: n31.gasi-cluster.cluster

Timers On : Thu Feb 20 15:52:07 2025
Timers Off: Thu Feb 20 15:52:24 2025

Wall Time:       17.29 seconds

                                                       Time (seconds)
Module                                       User      System        Wall        Calls

--------------------------------------------------------------------------------------

**************************************************************************************

Host: n31.gasi-cluster.cluster

Timers On : Thu Feb 20 15:55:40 2025
Timers Off: Thu Feb 20 15:56:12 2025

Wall Time:       31.35 seconds

                                                       Time (seconds)
Module                                       User      System        Wall        Calls

--------------------------------------------------------------------------------------

**************************************************************************************

Host: n31.gasi-cluster.cluster

Timers On : Thu Feb 20 16:07:22 2025
Timers Off: Thu Feb 20 16:07:24 2025

Wall Time:        2.26 seconds

                                                       Time (seconds)
Module                                       User      System        Wall        Calls

--------------------------------------------------------------------------------------

**************************************************************************************

Host: n31.gasi-cluster.cluster

Timers On : Thu Feb 20 16:08:20 2025
Timers Off: Thu Feb 20 16:08:23 2025

Wall Time:        2.35 seconds

                                                       Time (seconds)
Module                                       User      System        Wall        Calls

--------------------------------------------------------------------------------------

**************************************************************************************

Host: n31.gasi-cluster.cluster

Timers On : Thu Feb 20 16:13:09 2025
Timers Off: Thu Feb 20 16:15:14 2025

Wall Time:      124.87 seconds

                                                       Time (seconds)
Module                                       User      System        Wall        Calls

--------------------------------------------------------------------------------------

**************************************************************************************

Host: n31.gasi-cluster.cluster

Timers On : Thu Feb 20 16:15:19 2025
Timers Off: Thu Feb 20 16:15:39 2025

Wall Time:       19.83 seconds

                                                       Time (seconds)
Module                                       User      System        Wall        Calls

--------------------------------------------------------------------------------------

**************************************************************************************

Host: n31.gasi-cluster.cluster

Timers On : Thu Feb 20 16:17:24 2025
Timers Off: Thu Feb 20 16:17:44 2025

Wall Time:       19.97 seconds

                                                       Time (seconds)
Module                                       User      System        Wall        Calls

--------------------------------------------------------------------------------------

**************************************************************************************

Host: n42.gasi-cluster.cluster

Timers On : Thu Feb 20 16:48:43 2025
Timers Off: Thu Feb 20 16:49:02 2025

Wall Time:       19.55 seconds

                                                       Time (seconds)
Module                                       User      System        Wall        Calls

--------------------------------------------------------------------------------------

**************************************************************************************

Host: n31.gasi-cluster.cluster

Timers On : Thu Feb 20 17:29:00 2025
Timers Off: Thu Feb 20 17:29:01 2025

Wall Time:        0.69 seconds

                                                       Time (seconds)
Module                                       User      System        Wall        Calls

--------------------------------------------------------------------------------------

**************************************************************************************

Host: n31.gasi-cluster.cluster

Timers On : Thu Feb 20 17:29:33 2025
Timers Off: Thu Feb 20 17:29:33 2025

Wall Time:        0.66 seconds

                                                       Time (seconds)
Module                                       User      System        Wall        Calls

--------------------------------------------------------------------------------------

**************************************************************************************

Host: n31.gasi-cluster.cluster

Timers On : Thu Feb 20 17:29:52 2025
Timers Off: Thu Feb 20 17:30:09 2025

Wall Time:       17.41 seconds

                                                       Time (seconds)
Module                                       User      System        Wall        Calls

--------------------------------------------------------------------------------------

**************************************************************************************

Host: n31.gasi-cluster.cluster

Timers On : Thu Feb 20 17:31:26 2025
Timers Off: Thu Feb 20 17:31:27 2025

Wall Time:        0.68 seconds

                                                       Time (seconds)
Module                                       User      System        Wall        Calls

--------------------------------------------------------------------------------------

**************************************************************************************

Host: n17.gasi-cluster.cluster

Timers On : Thu Feb 20 17:33:42 2025
Timers Off: Thu Feb 20 17:33:44 2025

Wall Time:        2.37 seconds

                                                       Time (seconds)
Module                                       User      System        Wall        Calls

--------------------------------------------------------------------------------------

**************************************************************************************

Host: n17.gasi-cluster.cluster

Timers On : Thu Feb 20 17:33:58 2025
Timers Off: Thu Feb 20 17:35:12 2025

Wall Time:       73.61 seconds

                                                       Time (seconds)
Module                                       User      System        Wall        Calls

--------------------------------------------------------------------------------------

**************************************************************************************

Host: n17.gasi-cluster.cluster

Timers On : Thu Feb 20 17:35:34 2025
Timers Off: Thu Feb 20 17:35:59 2025

Wall Time:       25.27 seconds

                                                       Time (seconds)
Module                                       User      System        Wall        Calls

--------------------------------------------------------------------------------------

**************************************************************************************

Host: n17.gasi-cluster.cluster

Timers On : Thu Feb 20 17:36:06 2025
Timers Off: Thu Feb 20 17:37:03 2025

Wall Time:       57.14 seconds

                                                       Time (seconds)
Module                                       User      System        Wall        Calls

--------------------------------------------------------------------------------------

**************************************************************************************

Host: n17.gasi-cluster.cluster

Timers On : Thu Feb 20 17:37:43 2025
Timers Off: Thu Feb 20 17:39:15 2025

Wall Time:       91.90 seconds

                                                       Time (seconds)
Module                                       User      System        Wall        Calls

--------------------------------------------------------------------------------------

**************************************************************************************

Host: n17.gasi-cluster.cluster

Timers On : Thu Feb 20 17:40:06 2025
Timers Off: Thu Feb 20 17:47:08 2025

Wall Time:      422.14 seconds

                                                       Time (seconds)
Module                                       User      System        Wall        Calls

--------------------------------------------------------------------------------------

**************************************************************************************

Host: n44.gasi-cluster.cluster

Timers On : Thu Feb 20 17:52:48 2025
Timers Off: Thu Feb 20 17:52:49 2025

Wall Time:        1.28 seconds

                                                       Time (seconds)
Module                                       User      System        Wall        Calls

--------------------------------------------------------------------------------------

**************************************************************************************

Host: n45.gasi-cluster.cluster

Timers On : Thu Feb 20 17:49:40 2025
Timers Off: Thu Feb 20 17:57:38 2025

Wall Time:      477.64 seconds

                                                       Time (seconds)
Module                                       User      System        Wall        Calls

--------------------------------------------------------------------------------------

**************************************************************************************

Host: n18.gasi-cluster

Timers On : Thu Feb 20 16:29:28 2025
Timers Off: Thu Feb 20 20:11:08 2025

Wall Time:    13300.37 seconds

                                                       Time (seconds)
Module                                       User      System        Wall        Calls

--------------------------------------------------------------------------------------

**************************************************************************************

Host: n25.gasi-cluster.cluster

Timers On : Thu Feb 20 16:29:02 2025
Timers Off: Thu Feb 20 20:33:52 2025

Wall Time:    14690.15 seconds

                                                       Time (seconds)
Module                                       User      System        Wall        Calls

--------------------------------------------------------------------------------------

**************************************************************************************

Host: n44.gasi-cluster.cluster

Timers On : Thu Feb 20 17:53:55 2025
Timers Off: Thu Feb 20 20:35:29 2025

Wall Time:     9694.48 seconds

                                                       Time (seconds)
Module                                       User      System        Wall        Calls

--------------------------------------------------------------------------------------

**************************************************************************************

Host: n34.gasi-cluster

Timers On : Thu Feb 20 15:21:33 2025
Timers Off: Thu Feb 20 20:38:14 2025

Wall Time:    19000.61 seconds

                                                       Time (seconds)
Module                                       User      System        Wall        Calls

--------------------------------------------------------------------------------------

**************************************************************************************

Host: n33.gasi-cluster

Timers On : Thu Feb 20 13:57:05 2025
Timers Off: Thu Feb 20 20:59:57 2025

Wall Time:    25372.01 seconds

                                                       Time (seconds)
Module                                       User      System        Wall        Calls

--------------------------------------------------------------------------------------

**************************************************************************************

Host: n10.gasi-cluster.cluster

Timers On : Thu Feb 20 13:49:19 2025
Timers Off: Fri Feb 21 04:58:01 2025

Wall Time:    54522.21 seconds

                                                       Time (seconds)
Module                                       User      System        Wall        Calls

--------------------------------------------------------------------------------------

**************************************************************************************

Host: n19.gasi-cluster

Timers On : Fri Feb 21 14:46:18 2025
Timers Off: Fri Feb 21 14:46:19 2025

Wall Time:        1.43 seconds

                                                       Time (seconds)
Module                                       User      System        Wall        Calls

--------------------------------------------------------------------------------------

**************************************************************************************

Host: n19.gasi-cluster

Timers On : Fri Feb 21 14:47:25 2025
Timers Off: Fri Feb 21 14:48:09 2025

Wall Time:       44.09 seconds

                                                       Time (seconds)
Module                                       User      System        Wall        Calls

--------------------------------------------------------------------------------------

**************************************************************************************

Host: n18.gasi-cluster

Timers On : Fri Feb 21 15:49:36 2025
Timers Off: Fri Feb 21 15:49:39 2025

Wall Time:        2.43 seconds

                                                       Time (seconds)
Module                                       User      System        Wall        Calls

--------------------------------------------------------------------------------------

**************************************************************************************

Host: n18.gasi-cluster

Timers On : Fri Feb 21 15:51:21 2025
Timers Off: Fri Feb 21 15:51:38 2025

Wall Time:       16.35 seconds

                                                       Time (seconds)
Module                                       User      System        Wall        Calls

--------------------------------------------------------------------------------------

**************************************************************************************

Host: n19.gasi-cluster

Timers On : Fri Feb 21 16:03:22 2025
Timers Off: Fri Feb 21 16:03:23 2025

Wall Time:        0.62 seconds

                                                       Time (seconds)
Module                                       User      System        Wall        Calls

--------------------------------------------------------------------------------------

**************************************************************************************

Host: n26.gasi-cluster

Timers On : Fri Feb 21 17:50:08 2025
Timers Off: Fri Feb 21 17:51:12 2025

Wall Time:       63.62 seconds

                                                       Time (seconds)
Module                                       User      System        Wall        Calls

--------------------------------------------------------------------------------------

**************************************************************************************

Host: n11.gasi-cluster.cluster

Timers On : Fri Feb 21 17:49:25 2025
Timers Off: Fri Feb 21 17:51:56 2025

Wall Time:      150.41 seconds

                                                       Time (seconds)
Module                                       User      System        Wall        Calls

--------------------------------------------------------------------------------------

**************************************************************************************

Host: n26.gasi-cluster

Timers On : Fri Feb 21 17:53:52 2025
Timers Off: Fri Feb 21 17:55:15 2025

Wall Time:       82.78 seconds

                                                       Time (seconds)
Module                                       User      System        Wall        Calls

--------------------------------------------------------------------------------------

**************************************************************************************

Host: n14.gasi-cluster

Timers On : Fri Feb 21 14:22:29 2025
Timers Off: Fri Feb 21 17:57:36 2025

Wall Time:    12907.14 seconds

                                                       Time (seconds)
Module                                       User      System        Wall        Calls

--------------------------------------------------------------------------------------

**************************************************************************************

Host: n26.gasi-cluster

Timers On : Fri Feb 21 18:05:30 2025
Timers Off: Fri Feb 21 18:07:12 2025

Wall Time:      101.29 seconds

                                                       Time (seconds)
Module                                       User      System        Wall        Calls

--------------------------------------------------------------------------------------

**************************************************************************************

Host: n28.gasi-cluster.cluster

Timers On : Fri Feb 21 18:17:40 2025
Timers Off: Fri Feb 21 18:19:46 2025

Wall Time:      125.88 seconds

                                                       Time (seconds)
Module                                       User      System        Wall        Calls

--------------------------------------------------------------------------------------

**************************************************************************************

Host: n28.gasi-cluster.cluster

Timers On : Fri Feb 21 18:21:35 2025
Timers Off: Fri Feb 21 18:22:42 2025

Wall Time:       67.42 seconds

                                                       Time (seconds)
Module                                       User      System        Wall        Calls

--------------------------------------------------------------------------------------

**************************************************************************************

Host: n26.gasi-cluster

Timers On : Fri Feb 21 18:30:53 2025
Timers Off: Fri Feb 21 18:33:33 2025

Wall Time:      159.91 seconds

                                                       Time (seconds)
Module                                       User      System        Wall        Calls

--------------------------------------------------------------------------------------

**************************************************************************************

Host: n13.gasi-cluster.cluster

Timers On : Fri Feb 21 14:22:26 2025
Timers Off: Fri Feb 21 18:55:03 2025

Wall Time:    16357.46 seconds

                                                       Time (seconds)
Module                                       User      System        Wall        Calls

--------------------------------------------------------------------------------------

**************************************************************************************

Host: n8.gasi-cluster.cluster

Timers On : Fri Feb 21 14:22:26 2025
Timers Off: Fri Feb 21 18:55:50 2025

Wall Time:    16403.72 seconds

                                                       Time (seconds)
Module                                       User      System        Wall        Calls

--------------------------------------------------------------------------------------

**************************************************************************************

Host: n25.gasi-cluster.cluster

Timers On : Fri Feb 21 18:58:53 2025
Timers Off: Fri Feb 21 19:25:08 2025

Wall Time:     1574.76 seconds

                                                       Time (seconds)
Module                                       User      System        Wall        Calls

--------------------------------------------------------------------------------------

**************************************************************************************

Host: n17.gasi-cluster.cluster

Timers On : Fri Feb 21 22:21:20 2025
Timers Off: Fri Feb 21 22:21:22 2025

Wall Time:        1.87 seconds

                                                       Time (seconds)
Module                                       User      System        Wall        Calls

--------------------------------------------------------------------------------------

**************************************************************************************

Host: n17.gasi-cluster.cluster

Timers On : Fri Feb 21 22:21:29 2025
Timers Off: Fri Feb 21 22:21:30 2025

Wall Time:        1.15 seconds

                                                       Time (seconds)
Module                                       User      System        Wall        Calls

--------------------------------------------------------------------------------------

**************************************************************************************

Host: n17.gasi-cluster.cluster

Timers On : Fri Feb 21 22:23:06 2025
Timers Off: Fri Feb 21 22:23:08 2025

Wall Time:        1.32 seconds

                                                       Time (seconds)
Module                                       User      System        Wall        Calls

--------------------------------------------------------------------------------------

**************************************************************************************

Host: n11.gasi-cluster.cluster

Timers On : Fri Feb 21 22:23:12 2025
Timers Off: Fri Feb 21 22:23:14 2025

Wall Time:        2.45 seconds

                                                       Time (seconds)
Module                                       User      System        Wall        Calls

--------------------------------------------------------------------------------------

**************************************************************************************

Host: n17.gasi-cluster.cluster

Timers On : Fri Feb 21 22:25:28 2025
Timers Off: Fri Feb 21 22:25:30 2025

Wall Time:        1.52 seconds

                                                       Time (seconds)
Module                                       User      System        Wall        Calls

--------------------------------------------------------------------------------------

**************************************************************************************

Host: n11.gasi-cluster.cluster

Timers On : Fri Feb 21 22:25:33 2025
Timers Off: Fri Feb 21 22:25:35 2025

Wall Time:        1.46 seconds

                                                       Time (seconds)
Module                                       User      System        Wall        Calls

--------------------------------------------------------------------------------------

**************************************************************************************

Host: n17.gasi-cluster.cluster

Timers On : Fri Feb 21 22:26:12 2025
Timers Off: Fri Feb 21 22:26:32 2025

Wall Time:       20.37 seconds

                                                       Time (seconds)
Module                                       User      System        Wall        Calls

--------------------------------------------------------------------------------------

**************************************************************************************

Host: n11.gasi-cluster.cluster

Timers On : Fri Feb 21 22:26:17 2025
Timers Off: Fri Feb 21 22:26:37 2025

Wall Time:       19.76 seconds

                                                       Time (seconds)
Module                                       User      System        Wall        Calls

--------------------------------------------------------------------------------------

**************************************************************************************

Host: n17.gasi-cluster.cluster

Timers On : Fri Feb 21 22:27:10 2025
Timers Off: Fri Feb 21 22:27:29 2025

Wall Time:       19.08 seconds

                                                       Time (seconds)
Module                                       User      System        Wall        Calls

--------------------------------------------------------------------------------------

**************************************************************************************

Host: n11.gasi-cluster.cluster

Timers On : Fri Feb 21 22:27:18 2025
Timers Off: Fri Feb 21 22:27:38 2025

Wall Time:       20.36 seconds

                                                       Time (seconds)
Module                                       User      System        Wall        Calls

--------------------------------------------------------------------------------------

**************************************************************************************

Host: n13.gasi-cluster.cluster

Timers On : Fri Feb 21 22:40:50 2025
Timers Off: Fri Feb 21 22:41:25 2025

Wall Time:       34.90 seconds

                                                       Time (seconds)
Module                                       User      System        Wall        Calls

--------------------------------------------------------------------------------------

**************************************************************************************

Host: n19.gasi-cluster

Timers On : Fri Feb 21 23:01:16 2025
Timers Off: Fri Feb 21 23:01:47 2025

Wall Time:       30.64 seconds

                                                       Time (seconds)
Module                                       User      System        Wall        Calls

--------------------------------------------------------------------------------------

**************************************************************************************

Host: n20.gasi-cluster.cluster

Timers On : Fri Feb 21 23:01:39 2025
Timers Off: Fri Feb 21 23:02:27 2025

Wall Time:       48.27 seconds

                                                       Time (seconds)
Module                                       User      System        Wall        Calls

--------------------------------------------------------------------------------------

**************************************************************************************

Host: n20.gasi-cluster.cluster

Timers On : Fri Feb 21 23:02:59 2025
Timers Off: Fri Feb 21 23:03:29 2025

Wall Time:       29.40 seconds

                                                       Time (seconds)
Module                                       User      System        Wall        Calls

--------------------------------------------------------------------------------------

**************************************************************************************

Host: n31.gasi-cluster.cluster

Timers On : Fri Feb 21 23:03:11 2025
Timers Off: Fri Feb 21 23:03:41 2025

Wall Time:       29.91 seconds

                                                       Time (seconds)
Module                                       User      System        Wall        Calls

--------------------------------------------------------------------------------------

**************************************************************************************

Host: n20.gasi-cluster.cluster

Timers On : Fri Feb 21 23:04:05 2025
Timers Off: Fri Feb 21 23:04:34 2025

Wall Time:       29.22 seconds

                                                       Time (seconds)
Module                                       User      System        Wall        Calls

--------------------------------------------------------------------------------------

**************************************************************************************

Host: n31.gasi-cluster.cluster

Timers On : Fri Feb 21 23:04:11 2025
Timers Off: Fri Feb 21 23:04:40 2025

Wall Time:       28.22 seconds

                                                       Time (seconds)
Module                                       User      System        Wall        Calls

--------------------------------------------------------------------------------------

**************************************************************************************

Host: n19.gasi-cluster

Timers On : Fri Feb 21 18:27:30 2025
Timers Off: Fri Feb 21 23:08:03 2025

Wall Time:    16832.44 seconds

                                                       Time (seconds)
Module                                       User      System        Wall        Calls

--------------------------------------------------------------------------------------

**************************************************************************************

Host: n19.gasi-cluster

Timers On : Fri Feb 21 23:08:11 2025
Timers Off: Fri Feb 21 23:08:40 2025

Wall Time:       29.71 seconds

                                                       Time (seconds)
Module                                       User      System        Wall        Calls

--------------------------------------------------------------------------------------

**************************************************************************************

Host: n19.gasi-cluster

Timers On : Fri Feb 21 23:08:45 2025
Timers Off: Fri Feb 21 23:09:19 2025

Wall Time:       33.47 seconds

                                                       Time (seconds)
Module                                       User      System        Wall        Calls

--------------------------------------------------------------------------------------

**************************************************************************************

Host: n35.gasi-cluster.cluster

Timers On : Fri Feb 21 23:13:17 2025
Timers Off: Fri Feb 21 23:13:51 2025

Wall Time:       33.81 seconds

                                                       Time (seconds)
Module                                       User      System        Wall        Calls

--------------------------------------------------------------------------------------

**************************************************************************************

Host: n37.gasi-cluster.cluster

Timers On : Fri Feb 21 23:13:33 2025
Timers Off: Fri Feb 21 23:14:04 2025

Wall Time:       31.56 seconds

                                                       Time (seconds)
Module                                       User      System        Wall        Calls

--------------------------------------------------------------------------------------

**************************************************************************************

Host: n36.gasi-cluster.cluster

Timers On : Fri Feb 21 23:21:07 2025
Timers Off: Fri Feb 21 23:21:07 2025

Wall Time:        0.66 seconds

                                                       Time (seconds)
Module                                       User      System        Wall        Calls

--------------------------------------------------------------------------------------

**************************************************************************************

Host: n36.gasi-cluster.cluster

Timers On : Fri Feb 21 23:21:20 2025
Timers Off: Fri Feb 21 23:21:47 2025

Wall Time:       27.29 seconds

                                                       Time (seconds)
Module                                       User      System        Wall        Calls

--------------------------------------------------------------------------------------

**************************************************************************************

Host: n36.gasi-cluster.cluster

Timers On : Fri Feb 21 23:22:02 2025
Timers Off: Fri Feb 21 23:22:32 2025

Wall Time:       29.95 seconds

                                                       Time (seconds)
Module                                       User      System        Wall        Calls

--------------------------------------------------------------------------------------

**************************************************************************************

Host: n36.gasi-cluster.cluster

Timers On : Fri Feb 21 23:35:43 2025
Timers Off: Fri Feb 21 23:36:07 2025

Wall Time:       23.96 seconds

                                                       Time (seconds)
Module                                       User      System        Wall        Calls

--------------------------------------------------------------------------------------

**************************************************************************************

Host: n36.gasi-cluster.cluster

Timers On : Fri Feb 21 23:36:53 2025
Timers Off: Fri Feb 21 23:37:17 2025

Wall Time:       24.24 seconds

                                                       Time (seconds)
Module                                       User      System        Wall        Calls

--------------------------------------------------------------------------------------

**************************************************************************************

Host: n36.gasi-cluster.cluster

Timers On : Fri Feb 21 23:38:34 2025
Timers Off: Fri Feb 21 23:39:45 2025

Wall Time:       70.84 seconds

                                                       Time (seconds)
Module                                       User      System        Wall        Calls

--------------------------------------------------------------------------------------

**************************************************************************************

Host: n36.gasi-cluster.cluster

Timers On : Fri Feb 21 23:40:01 2025
Timers Off: Fri Feb 21 23:40:02 2025

Wall Time:        0.65 seconds

                                                       Time (seconds)
Module                                       User      System        Wall        Calls

--------------------------------------------------------------------------------------

**************************************************************************************

Host: n36.gasi-cluster.cluster

Timers On : Fri Feb 21 23:40:07 2025
Timers Off: Fri Feb 21 23:40:08 2025

Wall Time:        0.63 seconds

                                                       Time (seconds)
Module                                       User      System        Wall        Calls

--------------------------------------------------------------------------------------

**************************************************************************************

Host: n36.gasi-cluster.cluster

Timers On : Fri Feb 21 23:40:20 2025
Timers Off: Fri Feb 21 23:40:21 2025

Wall Time:        0.63 seconds

                                                       Time (seconds)
Module                                       User      System        Wall        Calls

--------------------------------------------------------------------------------------

**************************************************************************************

Host: n42.gasi-cluster.cluster

Timers On : Fri Feb 21 23:42:26 2025
Timers Off: Fri Feb 21 23:43:51 2025

Wall Time:       84.34 seconds

                                                       Time (seconds)
Module                                       User      System        Wall        Calls

--------------------------------------------------------------------------------------

**************************************************************************************

Host: n46.gasi-cluster.cluster

Timers On : Sat Feb 22 00:00:32 2025
Timers Off: Sat Feb 22 00:00:33 2025

Wall Time:        0.47 seconds

                                                       Time (seconds)
Module                                       User      System        Wall        Calls

--------------------------------------------------------------------------------------

**************************************************************************************

Host: n26.gasi-cluster

Timers On : Fri Feb 21 18:58:50 2025
Timers Off: Sat Feb 22 07:01:47 2025

Wall Time:    43377.18 seconds

                                                       Time (seconds)
Module                                       User      System        Wall        Calls

--------------------------------------------------------------------------------------

**************************************************************************************

Host: n27.gasi-cluster

Timers On : Fri Feb 21 18:59:00 2025
Timers Off: Sat Feb 22 09:57:37 2025

Wall Time:    53916.96 seconds

                                                       Time (seconds)
Module                                       User      System        Wall        Calls

--------------------------------------------------------------------------------------

**************************************************************************************

Host: n14.gasi-cluster

Timers On : Fri Feb 21 18:58:51 2025
Timers Off: Sun Feb 23 20:40:28 2025

Wall Time:   178896.10 seconds

                                                       Time (seconds)
Module                                       User      System        Wall        Calls

--------------------------------------------------------------------------------------

**************************************************************************************

Host: n46.gasi-cluster.cluster

Timers On : Sat Feb 22 00:01:05 2025
Timers Off: Mon Feb 24 00:17:17 2025

Wall Time:   173772.48 seconds

                                                       Time (seconds)
Module                                       User      System        Wall        Calls

--------------------------------------------------------------------------------------

**************************************************************************************

Host: n16.gasi-cluster

Timers On : Mon Feb 24 00:58:34 2025
Timers Off: Mon Feb 24 00:58:44 2025

Wall Time:        9.15 seconds

                                                       Time (seconds)
Module                                       User      System        Wall        Calls

--------------------------------------------------------------------------------------

**************************************************************************************

Host: n16.gasi-cluster

Timers On : Mon Feb 24 01:00:45 2025
Timers Off: Mon Feb 24 01:00:48 2025

Wall Time:        2.81 seconds

                                                       Time (seconds)
Module                                       User      System        Wall        Calls

--------------------------------------------------------------------------------------

**************************************************************************************

Host: n16.gasi-cluster

Timers On : Mon Feb 24 01:02:00 2025
Timers Off: Mon Feb 24 01:02:02 2025

Wall Time:        1.77 seconds

                                                       Time (seconds)
Module                                       User      System        Wall        Calls

--------------------------------------------------------------------------------------

**************************************************************************************

Host: n16.gasi-cluster

Timers On : Mon Feb 24 01:02:30 2025
Timers Off: Mon Feb 24 01:02:31 2025

Wall Time:        1.56 seconds

                                                       Time (seconds)
Module                                       User      System        Wall        Calls

--------------------------------------------------------------------------------------

**************************************************************************************

Host: n16.gasi-cluster

Timers On : Mon Feb 24 01:08:12 2025
Timers Off: Mon Feb 24 01:08:13 2025

Wall Time:        0.70 seconds

                                                       Time (seconds)
Module                                       User      System        Wall        Calls

--------------------------------------------------------------------------------------

**************************************************************************************

Host: n16.gasi-cluster

Timers On : Mon Feb 24 01:08:40 2025
Timers Off: Mon Feb 24 01:08:41 2025

Wall Time:        0.61 seconds

                                                       Time (seconds)
Module                                       User      System        Wall        Calls

--------------------------------------------------------------------------------------

**************************************************************************************

Host: n16.gasi-cluster

Timers On : Mon Feb 24 01:16:46 2025
Timers Off: Mon Feb 24 01:16:47 2025

Wall Time:        0.71 seconds

                                                       Time (seconds)
Module                                       User      System        Wall        Calls

--------------------------------------------------------------------------------------

**************************************************************************************

Host: n16.gasi-cluster

Timers On : Mon Feb 24 01:17:06 2025
Timers Off: Mon Feb 24 01:17:06 2025

Wall Time:        0.61 seconds

                                                       Time (seconds)
Module                                       User      System        Wall        Calls

--------------------------------------------------------------------------------------

**************************************************************************************

Host: n16.gasi-cluster

Timers On : Mon Feb 24 01:17:50 2025
Timers Off: Mon Feb 24 01:17:52 2025

Wall Time:        1.76 seconds

                                                       Time (seconds)
Module                                       User      System        Wall        Calls

--------------------------------------------------------------------------------------

**************************************************************************************

Host: n16.gasi-cluster

Timers On : Mon Feb 24 01:20:59 2025
Timers Off: Mon Feb 24 01:21:03 2025

Wall Time:        4.02 seconds

                                                       Time (seconds)
Module                                       User      System        Wall        Calls

--------------------------------------------------------------------------------------

**************************************************************************************

Host: n16.gasi-cluster

Timers On : Mon Feb 24 01:23:50 2025
Timers Off: Mon Feb 24 01:23:54 2025

Wall Time:        3.95 seconds

                                                       Time (seconds)
Module                                       User      System        Wall        Calls

--------------------------------------------------------------------------------------

**************************************************************************************

Host: n16.gasi-cluster

Timers On : Mon Feb 24 02:18:12 2025
Timers Off: Mon Feb 24 02:18:35 2025

Wall Time:       22.90 seconds

                                                       Time (seconds)
Module                                       User      System        Wall        Calls

--------------------------------------------------------------------------------------

**************************************************************************************

Host: n60.gasi-cluster.cluster

Timers On : Mon Feb 24 02:17:56 2025
Timers Off: Mon Feb 24 02:19:04 2025

Wall Time:       67.34 seconds

                                                       Time (seconds)
Module                                       User      System        Wall        Calls

--------------------------------------------------------------------------------------

**************************************************************************************

Host: n16.gasi-cluster

Timers On : Mon Feb 24 02:20:27 2025
Timers Off: Mon Feb 24 02:21:26 2025

Wall Time:       58.64 seconds

                                                       Time (seconds)
Module                                       User      System        Wall        Calls

--------------------------------------------------------------------------------------

**************************************************************************************

Host: n60.gasi-cluster.cluster

Timers On : Mon Feb 24 02:22:09 2025
Timers Off: Mon Feb 24 02:23:33 2025

Wall Time:       84.27 seconds

                                                       Time (seconds)
Module                                       User      System        Wall        Calls

--------------------------------------------------------------------------------------

**************************************************************************************

Host: n16.gasi-cluster

Timers On : Mon Feb 24 02:24:33 2025
Timers Off: Mon Feb 24 02:25:00 2025

Wall Time:       27.03 seconds

                                                       Time (seconds)
Module                                       User      System        Wall        Calls

--------------------------------------------------------------------------------------

**************************************************************************************

Host: n16.gasi-cluster

Timers On : Mon Feb 24 02:28:26 2025
Timers Off: Mon Feb 24 02:30:09 2025

Wall Time:      102.99 seconds

                                                       Time (seconds)
Module                                       User      System        Wall        Calls

--------------------------------------------------------------------------------------

**************************************************************************************

Host: n16.gasi-cluster

Timers On : Mon Feb 24 02:36:05 2025
Timers Off: Mon Feb 24 02:37:51 2025

Wall Time:      106.27 seconds

                                                       Time (seconds)
Module                                       User      System        Wall        Calls

--------------------------------------------------------------------------------------

**************************************************************************************

Host: n60.gasi-cluster.cluster

Timers On : Mon Feb 24 02:36:30 2025
Timers Off: Mon Feb 24 02:38:20 2025

Wall Time:      109.64 seconds

                                                       Time (seconds)
Module                                       User      System        Wall        Calls

--------------------------------------------------------------------------------------

**************************************************************************************

Host: n60.gasi-cluster.cluster

Timers On : Mon Feb 24 02:41:29 2025
Timers Off: Mon Feb 24 02:42:56 2025

Wall Time:       86.36 seconds

                                                       Time (seconds)
Module                                       User      System        Wall        Calls

--------------------------------------------------------------------------------------

**************************************************************************************

Host: n60.gasi-cluster.cluster

Timers On : Mon Feb 24 02:50:37 2025
Timers Off: Mon Feb 24 02:51:12 2025

Wall Time:       34.93 seconds

                                                       Time (seconds)
Module                                       User      System        Wall        Calls

--------------------------------------------------------------------------------------

**************************************************************************************

Host: n16.gasi-cluster

Timers On : Mon Feb 24 02:40:10 2025
Timers Off: Mon Feb 24 02:53:13 2025

Wall Time:      783.65 seconds

                                                       Time (seconds)
Module                                       User      System        Wall        Calls

--------------------------------------------------------------------------------------

**************************************************************************************

Host: n60.gasi-cluster.cluster

Timers On : Mon Feb 24 02:52:57 2025
Timers Off: Mon Feb 24 02:53:25 2025

Wall Time:       27.16 seconds

                                                       Time (seconds)
Module                                       User      System        Wall        Calls

--------------------------------------------------------------------------------------

**************************************************************************************

Host: n60.gasi-cluster.cluster

Timers On : Mon Feb 24 02:55:09 2025
Timers Off: Mon Feb 24 02:55:28 2025

Wall Time:       18.75 seconds

                                                       Time (seconds)
Module                                       User      System        Wall        Calls

--------------------------------------------------------------------------------------

**************************************************************************************

Host: n16.gasi-cluster

Timers On : Mon Feb 24 02:55:18 2025
Timers Off: Mon Feb 24 02:55:42 2025

Wall Time:       23.60 seconds

                                                       Time (seconds)
Module                                       User      System        Wall        Calls

--------------------------------------------------------------------------------------

**************************************************************************************

Host: n60.gasi-cluster.cluster

Timers On : Mon Feb 24 02:56:15 2025
Timers Off: Mon Feb 24 02:57:11 2025

Wall Time:       56.52 seconds

                                                       Time (seconds)
Module                                       User      System        Wall        Calls

--------------------------------------------------------------------------------------

**************************************************************************************

Host: n16.gasi-cluster

Timers On : Mon Feb 24 02:57:11 2025
Timers Off: Mon Feb 24 02:59:23 2025

Wall Time:      132.33 seconds

                                                       Time (seconds)
Module                                       User      System        Wall        Calls

--------------------------------------------------------------------------------------

**************************************************************************************

Host: n44.gasi-cluster.cluster

Timers On : Mon Feb 24 03:00:27 2025
Timers Off: Mon Feb 24 03:00:58 2025

Wall Time:       31.17 seconds

                                                       Time (seconds)
Module                                       User      System        Wall        Calls

--------------------------------------------------------------------------------------

**************************************************************************************

Host: n12.gasi-cluster

Timers On : Mon Feb 24 03:00:20 2025
Timers Off: Mon Feb 24 03:01:03 2025

Wall Time:       42.60 seconds

                                                       Time (seconds)
Module                                       User      System        Wall        Calls

--------------------------------------------------------------------------------------

**************************************************************************************

Host: n44.gasi-cluster.cluster

Timers On : Mon Feb 24 03:04:22 2025
Timers Off: Mon Feb 24 03:17:05 2025

Wall Time:      763.59 seconds

                                                       Time (seconds)
Module                                       User      System        Wall        Calls

--------------------------------------------------------------------------------------

**************************************************************************************

Host: n44.gasi-cluster.cluster

Timers On : Mon Feb 24 03:17:25 2025
Timers Off: Mon Feb 24 03:17:26 2025

Wall Time:        0.71 seconds

                                                       Time (seconds)
Module                                       User      System        Wall        Calls

--------------------------------------------------------------------------------------

**************************************************************************************

Host: n12.gasi-cluster

Timers On : Mon Feb 24 03:04:16 2025
Timers Off: Mon Feb 24 03:25:19 2025

Wall Time:     1262.95 seconds

                                                       Time (seconds)
Module                                       User      System        Wall        Calls

--------------------------------------------------------------------------------------

**************************************************************************************

Host: n42.gasi-cluster.cluster

Timers On : Mon Feb 24 03:26:20 2025
Timers Off: Mon Feb 24 03:29:54 2025

Wall Time:      214.20 seconds

                                                       Time (seconds)
Module                                       User      System        Wall        Calls

--------------------------------------------------------------------------------------

**************************************************************************************

Host: n42.gasi-cluster.cluster

Timers On : Mon Feb 24 03:30:20 2025
Timers Off: Mon Feb 24 03:30:22 2025

Wall Time:        2.28 seconds

                                                       Time (seconds)
Module                                       User      System        Wall        Calls

--------------------------------------------------------------------------------------

**************************************************************************************

Host: n42.gasi-cluster.cluster

Timers On : Mon Feb 24 03:30:41 2025
Timers Off: Mon Feb 24 03:32:19 2025

Wall Time:       98.23 seconds

                                                       Time (seconds)
Module                                       User      System        Wall        Calls

--------------------------------------------------------------------------------------

**************************************************************************************

Host: n12.gasi-cluster

Timers On : Mon Feb 24 03:25:54 2025
Timers Off: Mon Feb 24 03:37:57 2025

Wall Time:      723.13 seconds

                                                       Time (seconds)
Module                                       User      System        Wall        Calls

--------------------------------------------------------------------------------------

**************************************************************************************

Host: n12.gasi-cluster

Timers On : Mon Feb 24 03:40:33 2025
Timers Off: Mon Feb 24 03:42:33 2025

Wall Time:      119.33 seconds

                                                       Time (seconds)
Module                                       User      System        Wall        Calls

--------------------------------------------------------------------------------------

**************************************************************************************

Host: n12.gasi-cluster

Timers On : Mon Feb 24 03:43:22 2025
Timers Off: Mon Feb 24 03:50:07 2025

Wall Time:      404.89 seconds

                                                       Time (seconds)
Module                                       User      System        Wall        Calls

--------------------------------------------------------------------------------------

**************************************************************************************

Host: n12.gasi-cluster

Timers On : Mon Feb 24 03:50:57 2025
Timers Off: Mon Feb 24 03:56:03 2025

Wall Time:      306.53 seconds

                                                       Time (seconds)
Module                                       User      System        Wall        Calls

--------------------------------------------------------------------------------------

**************************************************************************************

Host: n42.gasi-cluster.cluster

Timers On : Mon Feb 24 03:34:23 2025
Timers Off: Mon Feb 24 04:04:59 2025

Wall Time:     1835.88 seconds

                                                       Time (seconds)
Module                                       User      System        Wall        Calls

--------------------------------------------------------------------------------------

**************************************************************************************

Host: n42.gasi-cluster.cluster

Timers On : Mon Feb 24 04:11:49 2025
Timers Off: Mon Feb 24 04:11:55 2025

Wall Time:        5.92 seconds

                                                       Time (seconds)
Module                                       User      System        Wall        Calls

--------------------------------------------------------------------------------------

**************************************************************************************

Host: n42.gasi-cluster.cluster

Timers On : Mon Feb 24 04:14:04 2025
Timers Off: Mon Feb 24 04:14:33 2025

Wall Time:       29.35 seconds

                                                       Time (seconds)
Module                                       User      System        Wall        Calls

--------------------------------------------------------------------------------------

**************************************************************************************

Host: n42.gasi-cluster.cluster

Timers On : Mon Feb 24 04:14:52 2025
Timers Off: Mon Feb 24 04:15:31 2025

Wall Time:       39.23 seconds

                                                       Time (seconds)
Module                                       User      System        Wall        Calls

--------------------------------------------------------------------------------------

**************************************************************************************

Host: n42.gasi-cluster.cluster

Timers On : Mon Feb 24 04:17:03 2025
Timers Off: Mon Feb 24 04:17:21 2025

Wall Time:       18.48 seconds

                                                       Time (seconds)
Module                                       User      System        Wall        Calls

--------------------------------------------------------------------------------------

**************************************************************************************

Host: n42.gasi-cluster.cluster

Timers On : Mon Feb 24 04:17:39 2025
Timers Off: Mon Feb 24 04:18:20 2025

Wall Time:       40.15 seconds

                                                       Time (seconds)
Module                                       User      System        Wall        Calls

--------------------------------------------------------------------------------------

**************************************************************************************

Host: n42.gasi-cluster.cluster

Timers On : Mon Feb 24 04:18:45 2025
Timers Off: Mon Feb 24 04:19:14 2025

Wall Time:       28.99 seconds

                                                       Time (seconds)
Module                                       User      System        Wall        Calls

--------------------------------------------------------------------------------------

**************************************************************************************

Host: n42.gasi-cluster.cluster

Timers On : Mon Feb 24 04:19:03 2025
Timers Off: Mon Feb 24 04:19:43 2025

Wall Time:       40.52 seconds

                                                       Time (seconds)
Module                                       User      System        Wall        Calls

--------------------------------------------------------------------------------------

**************************************************************************************

Host: n42.gasi-cluster.cluster

Timers On : Mon Feb 24 04:22:03 2025
Timers Off: Mon Feb 24 04:22:04 2025

Wall Time:        1.46 seconds

                                                       Time (seconds)
Module                                       User      System        Wall        Calls

--------------------------------------------------------------------------------------

**************************************************************************************

Host: n12.gasi-cluster

Timers On : Mon Feb 24 03:56:33 2025
Timers Off: Mon Feb 24 04:22:33 2025

Wall Time:     1559.57 seconds

                                                       Time (seconds)
Module                                       User      System        Wall        Calls

--------------------------------------------------------------------------------------

**************************************************************************************

Host: n42.gasi-cluster.cluster

Timers On : Mon Feb 24 04:22:51 2025
Timers Off: Mon Feb 24 04:29:06 2025

Wall Time:      375.08 seconds

                                                       Time (seconds)
Module                                       User      System        Wall        Calls

--------------------------------------------------------------------------------------

**************************************************************************************

Host: n60.gasi-cluster.cluster

Timers On : Mon Feb 24 04:31:43 2025
Timers Off: Mon Feb 24 04:32:12 2025

Wall Time:       29.11 seconds

                                                       Time (seconds)
Module                                       User      System        Wall        Calls

--------------------------------------------------------------------------------------

**************************************************************************************

Host: n60.gasi-cluster.cluster

Timers On : Mon Feb 24 04:34:47 2025
Timers Off: Mon Feb 24 04:34:50 2025

Wall Time:        3.08 seconds

                                                       Time (seconds)
Module                                       User      System        Wall        Calls

--------------------------------------------------------------------------------------

**************************************************************************************

Host: n44.gasi-cluster.cluster

Timers On : Mon Feb 24 05:12:08 2025
Timers Off: Mon Feb 24 05:12:42 2025

Wall Time:       34.76 seconds

                                                       Time (seconds)
Module                                       User      System        Wall        Calls

--------------------------------------------------------------------------------------

**************************************************************************************

Host: n82.gasi-cluster.cluster

Timers On : Mon Feb 24 05:14:17 2025
Timers Off: Mon Feb 24 05:15:12 2025

Wall Time:       55.29 seconds

                                                       Time (seconds)
Module                                       User      System        Wall        Calls

--------------------------------------------------------------------------------------

**************************************************************************************

Host: n82.gasi-cluster.cluster

Timers On : Mon Feb 24 05:15:21 2025
Timers Off: Mon Feb 24 05:15:52 2025

Wall Time:       31.33 seconds

                                                       Time (seconds)
Module                                       User      System        Wall        Calls

--------------------------------------------------------------------------------------

**************************************************************************************

Host: n44.gasi-cluster.cluster

Timers On : Mon Feb 24 05:15:48 2025
Timers Off: Mon Feb 24 05:16:22 2025

Wall Time:       33.16 seconds

                                                       Time (seconds)
Module                                       User      System        Wall        Calls

--------------------------------------------------------------------------------------

**************************************************************************************

Host: n44.gasi-cluster.cluster

Timers On : Mon Feb 24 05:17:17 2025
Timers Off: Mon Feb 24 05:17:52 2025

Wall Time:       34.83 seconds

                                                       Time (seconds)
Module                                       User      System        Wall        Calls

--------------------------------------------------------------------------------------

**************************************************************************************

Host: n44.gasi-cluster.cluster

Timers On : Mon Feb 24 05:19:01 2025
Timers Off: Mon Feb 24 05:19:37 2025

Wall Time:       36.73 seconds

                                                       Time (seconds)
Module                                       User      System        Wall        Calls

--------------------------------------------------------------------------------------

**************************************************************************************

Host: n44.gasi-cluster.cluster

Timers On : Mon Feb 24 05:20:09 2025
Timers Off: Mon Feb 24 05:20:44 2025

Wall Time:       34.59 seconds

                                                       Time (seconds)
Module                                       User      System        Wall        Calls

--------------------------------------------------------------------------------------

**************************************************************************************

Host: n12.gasi-cluster

Timers On : Mon Feb 24 05:22:10 2025
Timers Off: Mon Feb 24 05:25:39 2025

Wall Time:      208.43 seconds

                                                       Time (seconds)
Module                                       User      System        Wall        Calls

--------------------------------------------------------------------------------------

**************************************************************************************

Host: n12.gasi-cluster

Timers On : Mon Feb 24 05:26:04 2025
Timers Off: Mon Feb 24 05:26:40 2025

Wall Time:       36.06 seconds

                                                       Time (seconds)
Module                                       User      System        Wall        Calls

--------------------------------------------------------------------------------------

**************************************************************************************

Host: n42.gasi-cluster.cluster

Timers On : Mon Feb 24 04:49:25 2025
Timers Off: Mon Feb 24 05:30:50 2025

Wall Time:     2484.62 seconds

                                                       Time (seconds)
Module                                       User      System        Wall        Calls

--------------------------------------------------------------------------------------

**************************************************************************************

Host: n44.gasi-cluster.cluster

Timers On : Mon Feb 24 12:15:18 2025
Timers Off: Mon Feb 24 12:15:48 2025

Wall Time:       30.22 seconds

                                                       Time (seconds)
Module                                       User      System        Wall        Calls

--------------------------------------------------------------------------------------

**************************************************************************************

Host: n44.gasi-cluster.cluster

Timers On : Mon Feb 24 12:16:39 2025
Timers Off: Mon Feb 24 12:17:12 2025

Wall Time:       32.83 seconds

                                                       Time (seconds)
Module                                       User      System        Wall        Calls

--------------------------------------------------------------------------------------

**************************************************************************************

Host: n44.gasi-cluster.cluster

Timers On : Mon Feb 24 12:18:49 2025
Timers Off: Mon Feb 24 12:19:08 2025

Wall Time:       18.98 seconds

                                                       Time (seconds)
Module                                       User      System        Wall        Calls

--------------------------------------------------------------------------------------

**************************************************************************************

Host: n44.gasi-cluster.cluster

Timers On : Mon Feb 24 12:19:23 2025
Timers Off: Mon Feb 24 12:19:41 2025

Wall Time:       18.00 seconds

                                                       Time (seconds)
Module                                       User      System        Wall        Calls

--------------------------------------------------------------------------------------

**************************************************************************************

Host: n44.gasi-cluster.cluster

Timers On : Mon Feb 24 12:20:02 2025
Timers Off: Mon Feb 24 12:20:42 2025

Wall Time:       40.13 seconds

                                                       Time (seconds)
Module                                       User      System        Wall        Calls

--------------------------------------------------------------------------------------

**************************************************************************************

Host: n44.gasi-cluster.cluster

Timers On : Mon Feb 24 12:26:26 2025
Timers Off: Mon Feb 24 12:32:40 2025

Wall Time:      374.29 seconds

                                                       Time (seconds)
Module                                       User      System        Wall        Calls

--------------------------------------------------------------------------------------

**************************************************************************************

Host: n44.gasi-cluster.cluster

Timers On : Mon Feb 24 14:44:33 2025
Timers Off: Mon Feb 24 14:44:34 2025

Wall Time:        0.57 seconds

                                                       Time (seconds)
Module                                       User      System        Wall        Calls

--------------------------------------------------------------------------------------

**************************************************************************************

Host: n44.gasi-cluster.cluster

Timers On : Mon Feb 24 14:45:36 2025
Timers Off: Mon Feb 24 14:45:38 2025

Wall Time:        1.41 seconds

                                                       Time (seconds)
Module                                       User      System        Wall        Calls

--------------------------------------------------------------------------------------

**************************************************************************************

Host: n44.gasi-cluster.cluster

Timers On : Mon Feb 24 14:45:55 2025
Timers Off: Mon Feb 24 14:45:55 2025

Wall Time:        0.44 seconds

                                                       Time (seconds)
Module                                       User      System        Wall        Calls

--------------------------------------------------------------------------------------

[...]

--------------------------------------------------------------------------------------

**************************************************************************************

Host: n33.gasi-cluster

Timers On : Wed Mar 12 10:15:56 2025
Timers Off: Wed Mar 12 15:12:14 2025

Wall Time:    17778.55 seconds

                                                       Time (seconds)
Module                                       User      System        Wall        Calls

--------------------------------------------------------------------------------------

**************************************************************************************

Host: n30.gasi-cluster.cluster

Timers On : Wed Mar 12 10:15:58 2025
Timers Off: Wed Mar 12 15:24:33 2025

Wall Time:    18514.95 seconds

                                                       Time (seconds)
Module                                       User      System        Wall        Calls

--------------------------------------------------------------------------------------

**************************************************************************************

Host: n38.gasi-cluster.cluster

Timers On : Wed Mar 12 10:16:18 2025
Timers Off: Wed Mar 12 15:27:05 2025

Wall Time:    18646.99 seconds

                                                       Time (seconds)
Module                                       User      System        Wall        Calls

--------------------------------------------------------------------------------------

**************************************************************************************

Host: n32.gasi-cluster.cluster

Timers On : Wed Mar 12 10:15:55 2025
Timers Off: Wed Mar 12 15:27:33 2025

Wall Time:    18698.22 seconds

                                                       Time (seconds)
Module                                       User      System        Wall        Calls

--------------------------------------------------------------------------------------

**************************************************************************************

Host: n29.gasi-cluster.cluster

Timers On : Wed Mar 12 10:15:57 2025
Timers Off: Wed Mar 12 15:29:30 2025

Wall Time:    18813.13 seconds

                                                       Time (seconds)
Module                                       User      System        Wall        Calls

--------------------------------------------------------------------------------------

**************************************************************************************

Host: n35.gasi-cluster.cluster

Timers On : Wed Mar 12 10:15:58 2025
Timers Off: Wed Mar 12 15:29:36 2025

Wall Time:    18818.50 seconds

                                                       Time (seconds)
Module                                       User      System        Wall        Calls

--------------------------------------------------------------------------------------

**************************************************************************************

Host: n26.gasi-cluster

Timers On : Wed Mar 12 10:16:00 2025
Timers Off: Wed Mar 12 15:30:31 2025

Wall Time:    18871.32 seconds

                                                       Time (seconds)
Module                                       User      System        Wall        Calls

--------------------------------------------------------------------------------------

**************************************************************************************

Host: n24.gasi-cluster

Timers On : Wed Mar 12 10:27:50 2025
Timers Off: Wed Mar 12 15:30:40 2025

Wall Time:    18170.28 seconds

                                                       Time (seconds)
Module                                       User      System        Wall        Calls

--------------------------------------------------------------------------------------

**************************************************************************************

Host: n21.gasi-cluster

Timers On : Wed Mar 12 10:15:59 2025
Timers Off: Wed Mar 12 15:34:11 2025

Wall Time:    19092.24 seconds

                                                       Time (seconds)
Module                                       User      System        Wall        Calls

--------------------------------------------------------------------------------------

**************************************************************************************

Host: n18.gasi-cluster

Timers On : Wed Mar 12 10:15:58 2025
Timers Off: Wed Mar 12 15:34:52 2025

Wall Time:    19133.68 seconds

                                                       Time (seconds)
Module                                       User      System        Wall        Calls

--------------------------------------------------------------------------------------

**************************************************************************************

Host: n28.gasi-cluster.cluster

Timers On : Wed Mar 12 10:15:57 2025
Timers Off: Wed Mar 12 15:35:20 2025

Wall Time:    19162.95 seconds

                                                       Time (seconds)
Module                                       User      System        Wall        Calls

--------------------------------------------------------------------------------------

**************************************************************************************

Host: n25.gasi-cluster.cluster

Timers On : Wed Mar 12 10:15:59 2025
Timers Off: Wed Mar 12 15:35:57 2025

Wall Time:    19198.16 seconds

                                                       Time (seconds)
Module                                       User      System        Wall        Calls

--------------------------------------------------------------------------------------

**************************************************************************************

Host: n22.gasi-cluster.cluster

Timers On : Wed Mar 12 10:15:59 2025
Timers Off: Wed Mar 12 15:36:38 2025

Wall Time:    19239.33 seconds

                                                       Time (seconds)
Module                                       User      System        Wall        Calls

--------------------------------------------------------------------------------------

**************************************************************************************

Host: n20.gasi-cluster.cluster

Timers On : Wed Mar 12 10:16:26 2025
Timers Off: Wed Mar 12 15:38:00 2025

Wall Time:    19294.37 seconds

                                                       Time (seconds)
Module                                       User      System        Wall        Calls

--------------------------------------------------------------------------------------

**************************************************************************************

Host: n37.gasi-cluster.cluster

Timers On : Wed Mar 12 10:15:58 2025
Timers Off: Wed Mar 12 15:43:19 2025

Wall Time:    19641.15 seconds

                                                       Time (seconds)
Module                                       User      System        Wall        Calls

--------------------------------------------------------------------------------------

**************************************************************************************

Host: n31.gasi-cluster.cluster

Timers On : Wed Mar 12 10:15:57 2025
Timers Off: Wed Mar 12 15:46:05 2025

Wall Time:    19807.68 seconds

                                                       Time (seconds)
Module                                       User      System        Wall        Calls

--------------------------------------------------------------------------------------

**************************************************************************************

Host: n37.gasi-cluster.cluster

Timers On : Wed Mar 12 10:15:58 2025
Timers Off: Wed Mar 12 15:47:11 2025

Wall Time:    19872.61 seconds

                                                       Time (seconds)
Module                                       User      System        Wall        Calls

--------------------------------------------------------------------------------------

**************************************************************************************

Host: n19.gasi-cluster

Timers On : Wed Mar 12 10:15:58 2025
Timers Off: Wed Mar 12 15:52:25 2025

Wall Time:    20186.87 seconds

                                                       Time (seconds)
Module                                       User      System        Wall        Calls

--------------------------------------------------------------------------------------

**************************************************************************************

Host: n38.gasi-cluster.cluster

Timers On : Wed Mar 12 10:16:18 2025
Timers Off: Wed Mar 12 15:52:50 2025

Wall Time:    20192.38 seconds

                                                       Time (seconds)
Module                                       User      System        Wall        Calls

--------------------------------------------------------------------------------------

**************************************************************************************

Host: n41.gasi-cluster.cluster

Timers On : Wed Mar 12 10:16:13 2025
Timers Off: Wed Mar 12 16:20:02 2025

Wall Time:    21829.39 seconds

                                                       Time (seconds)
Module                                       User      System        Wall        Calls

--------------------------------------------------------------------------------------

**************************************************************************************

Host: n40.gasi-cluster

Timers On : Wed Mar 12 10:16:27 2025
Timers Off: Wed Mar 12 16:20:42 2025

Wall Time:    21854.34 seconds

                                                       Time (seconds)
Module                                       User      System        Wall        Calls

--------------------------------------------------------------------------------------

**************************************************************************************

Host: n23.gasi-cluster.cluster

Timers On : Wed Mar 12 16:21:14 2025
Timers Off: Wed Mar 12 16:23:04 2025

Wall Time:      110.39 seconds

                                                       Time (seconds)
Module                                       User      System        Wall        Calls

--------------------------------------------------------------------------------------

**************************************************************************************

Host: n40.gasi-cluster

Timers On : Wed Mar 12 16:23:20 2025
Timers Off: Wed Mar 12 16:25:38 2025

Wall Time:      137.73 seconds

                                                       Time (seconds)
Module                                       User      System        Wall        Calls

--------------------------------------------------------------------------------------

**************************************************************************************

Host: n38.gasi-cluster.cluster

Timers On : Wed Mar 12 16:23:41 2025
Timers Off: Wed Mar 12 16:25:57 2025

Wall Time:      136.46 seconds

                                                       Time (seconds)
Module                                       User      System        Wall        Calls

--------------------------------------------------------------------------------------

**************************************************************************************

Host: n11.gasi-cluster.cluster

Timers On : Wed Mar 12 10:15:59 2025
Timers Off: Wed Mar 12 16:26:21 2025

Wall Time:    22221.44 seconds

                                                       Time (seconds)
Module                                       User      System        Wall        Calls

--------------------------------------------------------------------------------------

**************************************************************************************

Host: n15.gasi-cluster.cluster

Timers On : Wed Mar 12 10:16:00 2025
Timers Off: Wed Mar 12 16:33:14 2025

Wall Time:    22633.34 seconds

                                                       Time (seconds)
Module                                       User      System        Wall        Calls

--------------------------------------------------------------------------------------

**************************************************************************************

Host: n12.gasi-cluster

Timers On : Wed Mar 12 10:16:00 2025
Timers Off: Wed Mar 12 16:35:27 2025

Wall Time:    22766.48 seconds

                                                       Time (seconds)
Module                                       User      System        Wall        Calls

--------------------------------------------------------------------------------------

**************************************************************************************

Host: n49.gasi-cluster.cluster

Timers On : Wed Mar 12 16:20:21 2025
Timers Off: Wed Mar 12 16:36:59 2025

Wall Time:      997.99 seconds

                                                       Time (seconds)
Module                                       User      System        Wall        Calls

--------------------------------------------------------------------------------------

**************************************************************************************

Host: n54.gasi-cluster.cluster

Timers On : Wed Mar 12 16:37:45 2025
Timers Off: Wed Mar 12 16:37:59 2025

Wall Time:       14.49 seconds

                                                       Time (seconds)
Module                                       User      System        Wall        Calls

--------------------------------------------------------------------------------------

**************************************************************************************

Host: n10.gasi-cluster.cluster

Timers On : Wed Mar 12 10:16:01 2025
Timers Off: Wed Mar 12 16:41:56 2025

Wall Time:    23154.84 seconds

                                                       Time (seconds)
Module                                       User      System        Wall        Calls

--------------------------------------------------------------------------------------

**************************************************************************************

Host: n8.gasi-cluster.cluster

Timers On : Wed Mar 12 10:16:00 2025
Timers Off: Wed Mar 12 16:42:46 2025

Wall Time:    23206.86 seconds

                                                       Time (seconds)
Module                                       User      System        Wall        Calls

--------------------------------------------------------------------------------------

**************************************************************************************

Host: n14.gasi-cluster

Timers On : Wed Mar 12 10:15:59 2025
Timers Off: Wed Mar 12 16:44:38 2025

Wall Time:    23318.66 seconds

                                                       Time (seconds)
Module                                       User      System        Wall        Calls

--------------------------------------------------------------------------------------

**************************************************************************************

Host: n34.gasi-cluster

Timers On : Wed Mar 12 10:15:58 2025
Timers Off: Wed Mar 12 16:47:29 2025

Wall Time:    23490.81 seconds

                                                       Time (seconds)
Module                                       User      System        Wall        Calls

--------------------------------------------------------------------------------------

**************************************************************************************

Host: n36.gasi-cluster.cluster

Timers On : Wed Mar 12 10:16:13 2025
Timers Off: Wed Mar 12 16:58:03 2025

Wall Time:    24109.91 seconds

                                                       Time (seconds)
Module                                       User      System        Wall        Calls

--------------------------------------------------------------------------------------

**************************************************************************************

Host: n36.gasi-cluster.cluster

Timers On : Wed Mar 12 10:16:13 2025
Timers Off: Wed Mar 12 17:08:51 2025

Wall Time:    24758.02 seconds

                                                       Time (seconds)
Module                                       User      System        Wall        Calls

--------------------------------------------------------------------------------------

**************************************************************************************

Host: n36.gasi-cluster.cluster

Timers On : Wed Mar 12 17:41:40 2025
Timers Off: Wed Mar 12 17:41:41 2025

Wall Time:        0.77 seconds

                                                       Time (seconds)
Module                                       User      System        Wall        Calls

--------------------------------------------------------------------------------------

**************************************************************************************

Host: n36.gasi-cluster.cluster

Timers On : Wed Mar 12 17:41:53 2025
Timers Off: Wed Mar 12 17:41:54 2025

Wall Time:        0.83 seconds

                                                       Time (seconds)
Module                                       User      System        Wall        Calls

--------------------------------------------------------------------------------------

**************************************************************************************

Host: n10.gasi-cluster.cluster

Timers On : Wed Mar 12 17:47:46 2025
Timers Off: Wed Mar 12 17:47:48 2025

Wall Time:        2.51 seconds

                                                       Time (seconds)
Module                                       User      System        Wall        Calls

--------------------------------------------------------------------------------------

**************************************************************************************

Host: n38.gasi-cluster.cluster

Timers On : Wed Mar 12 17:03:44 2025
Timers Off: Wed Mar 12 22:25:11 2025

Wall Time:    19286.56 seconds

                                                       Time (seconds)
Module                                       User      System        Wall        Calls

--------------------------------------------------------------------------------------

**************************************************************************************

Host: n31.gasi-cluster.cluster

Timers On : Wed Mar 12 17:57:09 2025
Timers Off: Thu Mar 13 00:15:12 2025

Wall Time:    22682.90 seconds

                                                       Time (seconds)
Module                                       User      System        Wall        Calls

--------------------------------------------------------------------------------------

**************************************************************************************

Host: n41.gasi-cluster.cluster

Timers On : Thu Mar 13 01:18:49 2025
Timers Off: Thu Mar 13 01:18:54 2025

Wall Time:        4.90 seconds

                                                       Time (seconds)
Module                                       User      System        Wall        Calls

--------------------------------------------------------------------------------------

**************************************************************************************

Host: n41.gasi-cluster.cluster

Timers On : Thu Mar 13 01:19:21 2025
Timers Off: Thu Mar 13 01:24:44 2025

Wall Time:      323.17 seconds

                                                       Time (seconds)
Module                                       User      System        Wall        Calls

--------------------------------------------------------------------------------------

**************************************************************************************
